# vtk DataFile Version 3.0
d-2__ created by libgimli-v1.2.3-38-gcdaaaf1e
ASCII
DATASET UNSTRUCTURED_GRID
POINTS 618 double
-22	0	0
-22	-16	0
22	-16	0
22	0	0
-182	0	0
-182	-176	0
182	0	0
182	-176	0
-20	0	0
-19.5	0	0
-19	0	0
-18.5	0	0
-18	0	0
-17.5	0	0
-17	0	0
-16.5	0	0
-16	0	0
-15.5	0	0
-15	0	0
-14.5	0	0
-14	0	0
-13.5	0	0
-13	0	0
-12.5	0	0
-12	0	0
-11.5	0	0
-11	0	0
-10.5	0	0
-10	0	0
-9.5	0	0
-9	0	0
-8.5	0	0
-8	0	0
-7.5	0	0
-7	0	0
-6.5	0	0
-6	0	0
-5.5	0	0
-5	0	0
-4.5	0	0
-4	0	0
-3.5	0	0
-3	0	0
-2.5	0	0
-2	0	0
-1.5	0	0
-1	0	0
-0.5	0	0
0	0	0
0.5	0	0
1	0	0
1.5	0	0
2	0	0
2.5	0	0
3	0	0
3.5	0	0
4	0	0
4.5	0	0
5	0	0
5.5	0	0
6	0	0
6.5	0	0
7	0	0
7.5	0	0
8	0	0
8.5	0	0
9	0	0
9.5	0	0
10	0	0
10.5	0	0
11	0	0
11.5	0	0
12	0	0
12.5	0	0
13	0	0
13.5	0	0
14	0	0
14.5	0	0
15	0	0
15.5	0	0
16	0	0
16.5	0	0
17	0	0
17.5	0	0
18	0	0
18.5	0	0
19	0	0
19.5	0	0
20	0	0
-20	-8	0
20	-8	0
-20	-2	0
20	-2	0
-22	-8	0
22	-8	0
0	-2	0
-22	-4	0
10	-2	0
-10	-2	0
-15	-2	0
22	-4	0
0	-8	0
5	-2	0
15	-2	0
-5	-2	0
0	-16	0
10	-8	0
-10	-8	0
-12.5	-2	0
-17.5	-2	0
-2.5	-2	0
-19.75	-0.828260930412	0
9.75	-0.828260930412	0
-10.25	-0.828260930412	0
-16.163537500602	-1.208135964812	0
-14.75	-0.828260930412	0
-5.25	-0.828260930412	0
14.75	-0.828260930412	0
-7.5	-2	0
-3.75	-2	0
4.75	-0.828260930412	0
2.5	-2	0
7.5	-2	0
12.5	-2	0
17.5	-2	0
18.75	-2	0
-11.75	-0.828260930412	0
-13.25	-0.828260930412	0
-18.25	-0.828260930412	0
-19.25	-0.527319433269	0
9.25	-0.527319433269	0
10.75	-0.828260930412	0
10.25	-0.527319433269	0
-10.75	-0.527319433269	0
-9.25	-0.828260930412	0
-9.75	-0.527319433269	0
-15.75	-0.527319433269	0
-16.75	-0.527319433269	0
-14.25	-0.527319433269	0
-5.75	-0.527319433269	0
-4.75	-0.527319433269	0
14.25	-0.527319433269	0
15.75	-0.828260930412	0
15.25	-0.527319433269	0
-7.25	-0.828260930412	0
-3.75	-0.376400809185	0
-4.25	-0.437270007293	0
-3.167161277051	-0.602330869799	0
-0.75	-0.828260930412	0
4.25	-0.527319433269	0
5.75	-0.828260930412	0
5.25	-0.527319433269	0
0.75	-0.828260930412	0
3.25	-0.828260930412	0
7.75	-0.828260930412	0
12.75	-0.828260930412	0
17.25	-0.828260930412	0
19.75	-0.828260930412	0
19.25	-0.527319433269	0
18.25	-0.527319433269	0
-12.25	-0.527319433269	0
-17.75	-0.527319433269	0
-18.75	-2	0
-18.75	-0.441445692431	0
8.75	-0.441445692431	0
8.75	-2	0
11.75	-0.828260930412	0
11.25	-0.527319433269	0
10.25	-1.093153304529	0
-11.25	-0.441445692431	0
-11.25	-2	0
-8.25	-0.828260930412	0
-8.75	-0.527319433269	0
-9.75	-1.093153304529	0
-16.875	-2	0
-15.25	-0.441445692431	0
-17.25	-0.441445692431	0
-16.594466107239	-0.986341646218	0
-13.75	-2	0
-13.75	-0.441445692431	0
-6.25	-0.441445692431	0
-6.25	-2	0
-4.62147081223	-1.306698443684	0
13.75	-0.441445692431	0
13.75	-2	0
16.25	-0.527319433269	0
15.25	-1.093153304529	0
-7.75	-0.527319433269	0
-2.25	-0.828260930412	0
-0.25	-0.527319433269	0
-1.25	-0.527319433269	0
3.75	-0.441445692431	0
6.75	-0.828260930412	0
6.25	-0.527319433269	0
5.25	-1.093153304529	0
1.75	-0.828260930412	0
1.25	-0.527319433269	0
2.75	-0.527319433269	0
3.75	-2	0
7.25	-0.527319433269	0
12.25	-0.527319433269	0
8.492576101169	-0.881684323121	0
17.75	-0.441445692431	0
-6.507423898831	-0.881684323121	0
-12.75	-0.441445692431	0
-12.354699144428	-1.267105958819	0
-19.12236904112	-1.305206079058	0
8.25	-0.433093250112	0
8.873535410675	-1.220722846215	0
11.25	-2	0
9.745100144068	-1.441845649265	0
-11.111983414479	-1.136406181398	0
-8.75	-2	0
-10.254899855932	-1.441845649265	0
-15.428368035138	-0.90145979835	0
-15.043439106191	-1.288799784807	0
-17.071631964862	-0.90145979835	0
-17.588788135068	-1.332588036427	0
-14.12236904112	-1.305206079058	0
-6.75	-0.433093250112	0
-6.126464589325	-1.220722846215	0
13.25	-0.433093250112	0
13.873535410675	-1.220722846215	0
16.25	-2	0
16.75	-0.441445692431	0
14.745100144068	-1.441845649265	0
-7.75	-1.093153304529	0
-0.145300855572	-1.267105958819	0
0.25	-0.441445692431	0
-1.75	-0.441445692431	0
-1.25	-2	0
3.888016585521	-1.136406181398	0
6.25	-2	0
4.745100144068	-1.441845649265	0
1.25	-2	0
2.25	-0.441445692431	0
2.645300855572	-1.267105958819	0
7.25	-1.093153304529	0
12.25	-1.093153304529	0
18.663537500602	-1.208135964812	0
17.928368035138	-0.90145979835	0
17.543439106191	-1.288799784807	0
13.492576101169	-0.881684323121	0
15.788116738836	-1.504544477448	0
16.611983414479	-1.136406181398	0
-7.245100144068	-1.441845649265	0
-1.611983414479	-1.136406181398	0
7.754899855932	-1.441845649265	0
12.754899855932	-1.441845649265	0
18.75	-0.441445692431	0
18.11992909985	-1.476764894604	0
19.239231730732	-1.111044272325	0
11.25	-1.093153304529	0
-8.75	-1.093153304529	0
-6.875	-2	0
6.25	-1.093153304529	0
1.25	-1.093153304529	0
8.125	-2	0
13.125	-2	0
19.754886316899	-1.439757690204	0
10.75	-1.43259688182	0
11.75	-1.43259688182	0
-9.25	-1.43259688182	0
-8.25	-1.43259688182	0
5.75	-1.43259688182	0
6.75	-1.43259688182	0
0.689615256012	-1.546576652264	0
1.810384743988	-1.546576652264	0
-6.664049717583	-1.44122729143	0
8.335950282417	-1.44122729143	0
13.335950282417	-1.44122729143	0
-3.916358786876	-1.093892374022	0
9.375	-2	0
-10.625	-2	0
-18.125	-2	0
14.375	-2	0
4.375	-2	0
19.375	-2	0
20.264976687887	-1.129913783707	0
-7.1875	-3.035326163015	0
7.8125	-3.035326163015	0
12.8125	-3.035326163015	0
-10.9375	-3.035326163015	0
-18.4375	-1.440800225404	0
-18.4375	-3.035326163015	0
4.0625	-3.035326163015	0
19.0625	-3.035326163015	0
22	-2	0
21	0	0
20.269175954788	-0.533107450693	0
-6.5625	-2.659149291586	0
9.6875	-3.035326163015	0
8.4375	-2.659149291586	0
15	-8	0
13.4375	-2.659149291586	0
-10.3125	-2.659149291586	0
-17.8125	-2.659149291586	0
4.6875	-2.659149291586	0
19.6875	-2.659149291586	0
9.0625	-2.551807115538	0
14.0625	-2.551807115538	0
8.889979268099	-3.420507726748	0
14.6875	-2.54136656264	0
-13.030872885584	-1.513900684722	0
-6.251854788941	-3.882563890316	0
-5.625	-2.699962095368	0
-10.001854788941	-3.882563890316	0
-9.375	-2.699962095368	0
-16.303746374325	-3.723496017787	0
7.71317795334	-5.012784907073	0
5.625	-2.699962095368	0
19.998145211059	-3.882563890316	0
21.05072404377	-0.837024543176	0
-16.25	-2	0
20.935645211059	-2.847237727301	0
20.969632513441	-1.819901384898	0
-22	-2	0
-16.188445827129	-0.727003796404	0
-15.61992909985	-1.476764894604	0
-16.601729132422	-1.529980175715	0
-17.117868628949	-1.544345342433	0
-17.1875	-2.551807115538	0
-17.397066261244	-3.204810070038	0
-16.5625	-2.54136656264	0
-14.375	-3.172763702392	0
-15.625	-2.721654290334	0
9.926801314759	-4.549027471736	0
14.978508444103	-4.149980160211	0
-5	-8	0
-8.305512055302	-3.025899741806	0
6.694487944698	-3.025899741806	0
-15	-8	0
7.245337002394	-3.998062904153	0
14.384988394249	-3.144519387903	0
-4.414936427914	-3.151420491714	0
-18.198036927664	-4.843569349515	0
5	-8	0
4.998145211059	-3.882563890316	0
6.118974500435	-3.994141518717	0
5.373729075122	-5.79503092462	0
-0.625	-4.070652326031	0
-21	-0.753697369394	0
15.625	-2.721654290334	0
-3.125	-3.087135625199	0
-11.873145211059	-5.008861772761	0
-13.125	-3.086002958845	0
3.126854788941	-5.008861772761	0
0.625	-3.318298583172	0
13.927814661212	-3.640804366577	0
-7.75980229686	-4.607604785863	0
-1.875	-3.082541503111	0
-13.634951789131	-4.786933251338	0
1.875	-3.103614231077	0
-3.663478927254	-5.256085950369	0
1.507303240148	-4.70910495426	0
-2.495185441919	-4.394816289327	0
11.170446107452	-3.576653192122	0
-7.5	-8	0
2.5	-8	0
-2.5	-8	0
2.042434967725	-6.342853500708	0
-2.067497687546	-6.197982516924	0
-22	-12	0
-22	-6	0
22	-12	0
22	-6	0
-20.120869931017	-3.879130068983	0
86	0	0
-86	0	0
15.064626706653	-3.107953491203	0
15.886400466393	-3.700440913833	0
16.644980070625	-2.973551340205	0
13.609700719501	-5.635889483786	0
16.177126044172	-5.429153519213	0
17.246453247037	-4.360517194166	0
12.752254436748	-4.476266694129	0
18.671876410851	-4.406968285217	0
11.354486471835	-5.093520644045	0
17.5	-8	0
20.01704770104	-5.869702523668	0
10.087407847521	-6.271883415515	0
-12.5	-8	0
0.124713821887	-6.066484955109	0
3.75	-6.763110907419	0
-22	-10	0
22	-10	0
54	0	0
30	0	0
7.5	-8	0
12.5	-8	0
-12.936617469389	-6.347243495123	0
-19	-11	0
19	-11	0
-17.5	-8	0
-54	0	0
-9.298526566455	-6.027359454907	0
-14.735439687593	-6.215897725764	0
-11.25	-6.785730825861	0
38	0	0
-25.313043721649	-11	0
-38	0	0
25.313043721649	-7	0
26	0	0
-24.109277733075	-9	0
-30	0	0
24.109277733075	-5	0
24.109277733075	-9	0
24	0	0
-23.765782769722	-7	0
-26	0	0
23.765782769722	-3	0
23.765782769722	-11	0
-23.732373000448	-5	0
-23.73205083753	-3	0
-24	0	0
-25	-1.601282513101	0
-28	-2.361889805477	0
-26.035425954198	-3.813966878455	0
-6.118297343418	-6.090980850521	0
-19.945118903424	-5.927755737764	0
28.024204449011	-4.005935324611	0
24.298694077507	-14	0
27.250573973048	-10.569006915877	0
-28.024204449011	-8.005935324611	0
-25.687599346531	-5.96761722262	0
25.855392224123	-3.670612035982	0
-28.335728808185	-5.290391834756	0
27.241477789564	-1.887063884121	0
29.515244473262	-2.251125991398	0
31.676604483182	-5.598471053541	0
34	0	0
32	-1.608434686569	0
1.25	-12	0
-11	-16	0
11	-16	0
-16.25	-10.5	0
-32.678323783562	-7.164210490835	0
35.489165941867	-3.899358181333	0
1.25	-9.8046875	0
-1.25	-10.201045048701	0
5.5	-16	0
-5.5	-16	0
-11.25	-11.90625	0
16.407019769459	-10.290640307388	0
3.75	-10.201045048701	0
-16.5	-16	0
-13.75	-10.1875	0
-3.75	-10.165357613202	0
-6.25	-9.882004045926	0
-8.75	-10.186350036467	0
-11.25	-9.753125	0
13.75	-9.882004045926	0
11.25	-10.186350036467	0
16.5	-16	0
8.75	-9.882004045926	0
6.358008532069	-10.114612324011	0
-17.177083333333	-13.213541666667	0
-14.725991410819	-12.53581871345	0
-2.75	-16	0
-7.127436664288	-13.094537184684	0
12.881593316518	-13.168712474373	0
17.022120016502	-13.136060008251	0
17.903644773461	-6.087461023833	0
8.25	-16	0
-2.520432960716	-11.614584703695	0
-4.831970242096	-12.329547131669	0
-0.71529933453	-12.590725276936	0
0.795766619665	-14.053364568645	0
2.75	-16	0
3.269955748573	-13.523766594285	0
14.797003990268	-11.916719518607	0
13.75	-16	0
14.863509330769	-14.109644991242	0
7.695760437888	-11.456035985508	0
5.430342507616	-12.377496064531	0
9.960953287251	-12.187458905234	0
[...]
CELL_DATA 1119
SCALARS Marker double 1
LOOKUP_TABLE default
1 1 2 2 2 1 2 2 2 2 2 2 2 2 2 1 2 2 2 2 2 2 2 2 2 2 2 2 2 2 1 2 2 2 2 2 2 2 2 2 2 2 2 1 2 2 2 2 2 2 2 2 2 2 2 2 2 2 2 2 2 2 2 1 2 2 2 2 2 2 2 2 2 2 2 2 2 2 2 2 2 2 2 2 2 2 2 2 1 2 2 2 2 2 2 2 2 2 2 2 2 2 2 2 2 2 2 2 2 2 2 2 2 2 2 2 2 1 1 2 2 2 2 2 2 2 2 2 2 2 2 2 1 2 2 2 2 2 2 2 2 2 2 2 2 2 2 2 2 2 2 2 2 2 2 2 2 2 2 2 2 2 2 2 2 2 2 2 2 2 2 2 1 2 2 2 2 2 2 2 2 2 2 2 2 2 2 2 2 2 2 2 2 2 2 2 2 2 2 2 2 2 2 2 2 2 2 2 2 2 2 2 2 2 2 2 2 2 2 2 2 2 2 2 2 2 2 2 2 2 2 2 2 2 2 2 2 2 2 2 2 2 2 2 2 2 2 2 2 2 2 2 2 2 2 2 2 2 2 2 2 2 2 2 2 2 2 2 2 2 2 2 2 2 2 2 2 2 2 2 2 2 2 2 2 2 2 2 2 2 2 2 2 2 2 2 2 2 2 2 2 2 2 2 2 2 2 2 2 2 2 2 2 2 2 2 2 2 2 2 2 2 2 2 2 2 2 2 2 2 2 2 2 2 2 2 2 2 2 2 2 2 2 2 2 2 2 2 2 2 2 2 2 2 2 2 2 2 2 2 2 2 2 2 2 2 2 2 2 2 2 2 2 2 2 2 2 2 2 2 2 2 2 2 2 2 2 2 2 2 2 2 2 2 2 2 2 2 2 2 2 2 2 2 2 2 2 2 2 2 2 2 2 2 2 2 2 2 2 2 2 2 2 2 2 2 2 2 2 2 2 2 2 2 2 2 2 2 2 2 2 2 2 2 2 2 2 2 2 2 2 2 2 2 2 2 2 2 2 2 2 2 2 2 2 2 2 2 2 2 2 2 2 2 2 2 2 2 2 2 2 2 2 2 2 1 2 2 2 2 2 2 2 2 2 2 2 2 2 2 2 2 2 2 2 2 2 2 2 2 2 2 2 2 2 2 2 2 2 2 2 2 2 2 2 2 2 2 2 2 2 2 2 2 2 2 2 2 2 2 2 2 2 2 2 2 2 2 2 2 2 2 2 2 2 2 2 2 2 2 2 2 2 2 2 2 2 2 2 2 2 2 2 2 2 2 2 2 2 2 2 2 2 2 2 2 2 2 2 2 2 2 2 2 2 2 2 2 2 2 2 2 2 2 2 2 2 2 2 2 2 2 2 2 2 2 2 2 2 2 2 2 2 2 2 2 2 2 2 2 2 2 2 2 2 1 2 2 2 1 1 2 2 2 2 1 1 2 2 2 2 2 2 2 2 2 2 2 2 2 2 2 2 2 2 2 2 2 2 2 2 2 2 2 2 2 1 2 1 2 1 1 1 1 2 2 2 2 2 2 2 2 2 2 2 1 2 1 1 2 2 2 2 1 1 1 1 1 1 1 1 1 1 1 1 1 1 1 1 1 1 1 1 1 1 1 1 1 1 1 1 1 1 1 2 2 2 2 1 1 1 1 1 1 1 1 1 1 1 1 1 1 1 1 1 1 1 1 1 1 1 2 2 2 1 2 1 1 2 1 1 1 1 2 2 2 2 2 2 1 2 2 2 2 2 1 2 2 1 2 2 2 1 2 2 2 2 2 2 2 2 2 2 2 2 2 2 2 2 2 2 1 2 2 2 2 2 2 2 2 2 2 2 2 2 2 2 2 2 2 2 2 2 2 1 2 2 1 2 2 2 2 2 2 2 2 2 2 2 2 2 1 1 1 2 1 2 2 2 1 1 1 1 2 2 2 2 1 1 1 1 1 1 2 2 1 1 1 1 1 1 1 1 1 1 1 1 1 1 1 1 2 2 1 1 2 2 2 1 1 1 1 1 1 1 1 1 2 2 2 2 2 2 2 1 2 2 2 2 1 1 1 1 2 1 2 2 2 2 1 1 2 2 1 1 1 1 2 2 1 1 2 2 1 1 1 1 1 1 1 1 1 1 1 1 1 1 1 1 1 1 1 1 1 1 1 1 1 1 1 1 1 1 1 1 1 1 1 1 1 1 1 1 1 1 1 1 1 1 1 1 1 1 1 1 1 1 1 1 1 1 1 1 1 1 1 1 1 1 1 1 1 1 1 1 1 1 1 1 1 1 1 1 1 1 1 1 1 1 1 1 1 1 1 1 1 1 1 1 1 1 1 1 1 1 1 1 1 1 1 1 1 1 1 1 1 1 1 1 1 1 1 1 1 1 1 1 1 1 1 1 1 1 1 1 1 1 1 1 1 1 1 1 1 1 1 1 1 1 1 1 1 1 1 1 1 1 1 1 1 1 1 1 1 1 1 1 1 1 1 1 1 1 1 1 1 1 1 1 
SCALARS res double 1
LOOKUP_TABLE default
1 1 537.26044519869 1099.6103688617 295.1495968494 1 675.76936060615 303.73424502491 0.19193470968223 25.911516624385 117.59343413617 55.413141547195 711.72274709691 199.11142325616 518.29618874941 1 226.0207364082 28.980060351247 401.98300793105 996.35205332584 556.18839642095 784.1561821437 147.51989910973 925.03675818042 1979.913691561 562.0677357838 566.18669862751 219.5642383551 324.78357961008 350.59439943698 1 579.46714356722 688.49564231303 55.016152750451 0.72171475119954 1291.4128352366 838.69046335837 199.00976722555 534.58537371581 0.83562340061644 1668.9238840232 639.14647507091 50.435298862379 1 280.30941502405 981.7037619825 236.00658560096 1045.9701648466 307.22007457534 856.59761647413 976.08866480645 682.21674666563 1.1920005939007 1739.6558045988 1156.2244474513 2.3401663413272 62.145941252029 1218.9258129332 802.06557342552 99.517131773315 1330.3147692912 312.67963173099 1872.4102278969 1 217.78036325929 801.15552365582 958.4344769327 350.38134499797 711.82201278185 823.99147728843 887.34216680172 756.18684812247 1071.4302688134 569.71813308506 349.74345928882 793.1021103698 743.69096046213 896.22438402304 1215.3668122203 148.00495655824 707.66081919737 872.25931832003 724.51380223876 983.58534788081 792.21717680634 282.05213599321 912.10987481569 1375.0991017102 1 896.16598105145 876.27269363415 59.402053957535 1325.4734465099 711.26059023694 793.19973577642 964.76832059869 186.4704284727 630.80674779073 599.35509829675 640.10521418389 662.84744067108 949.17651472207 241.86974235746 615.84409472987 958.46472060011 766.12569146533 100.73884225067 1287.3844161294 784.37615619894 620.73225655189 1000.5578841792 758.63560788455 1047.9066795417 944.38652843475 57.926094209617 68.551720190289 647.49563506643 1 1 936.84408509297 886.15706166539 1251.9585979377 1569.7000406121 668.83471413243 1303.965780627 1560.0463231261 1173.7514307545 1011.3961611277 1108.9085477612 496.63683679887 637.1878053075 1120.62303186 1 558.77659175089 751.83498546858 858.21014588299 849.36500719078 248.39113224747 1144.4885274095 868.97955838241 879.16122839084 555.191358191 989.63157907972 599.25136810494 651.05237971788 871.8881505279 980.65373149179 1195.2005909245 824.75236650718 725.89349758268 639.55509912569 361.86326215934 797.06126115608 256.80721279604 1202.5256675365 1515.1041674336 827.01687120933 817.8653393186 596.98041419433 868.84323619396 1021.2133374193 486.42665589841 673.92460405023 988.53356218296 726.03962238288 483.864349583 703.54369427781 538.21002463993 595.91175713447 1403.7304255758 1287.0743065746 111.9967000046 1 991.76926741552 964.04730862015 570.85802872329 651.14797991173 952.87258166378 578.47231819739 258.38220266777 1105.0562869205 457.03482981153 194.27428198527 422.46953994004 479.85248317723 286.3437298096 531.96462435038 1038.6283285603 630.09278664581 1070.9373579274 1015.0975034543 749.08119678194 746.15208533956 661.62888619699 890.92751180703 681.78793252495 649.70816408426 980.2650372482 714.54634346292 1114.374734326 688.77892566502 777.20843145292 701.98543635324 781.12654989988 743.1104068614 366.3735096148 762.44182220687 754.06063463067 706.18263261737 707.72542431474 867.98412661232 373.34002668264 1600.22739974 903.01019120997 1482.4613575578 556.28599910046 722.41195456459 461.06354455788 906.23495778439 1476.5889022543 685.91882732568 862.41478483878 802.80740071468 512.84787209768 471.0437332007 604.88444690061 418.17034326754 294.65055868245 573.2185279145 555.389629394 171.63601576946 867.58786609526 1821.8874595502 554.40994019031 389.66223710748 515.06445934058 781.43814292711 383.69039979497 365.7901217616 1020.3618757645 1086.6499854622 948.40448756653 345.04921549568 930.32775593539 832.29589504937 658.62727049872 940.57452391143 925.96661499423 936.90946449681 949.53896489978 1434.3666321261 2003.7663314163 87.211325568315 1267.1633720628 971.21129094637 953.05517716519 1279.2930101753 837.06121263232 1462.3056096484 324.16405459247 1046.8542139042 787.59165347491 588.32390480895 351.61075367251 723.95005616502 437.92174069943 343.08052966584 1273.6335078456 883.47016529858 1035.2588499005 906.28853565628 780.43755072717 1088.2202849642 1285.2131529649 139.00958536663 463.60010471535 723.38516109367 615.00178437455 1317.3234879771 1112.9903431215 419.89965084322 775.73348836736 415.49581362526 1024.8190421304 547.48235333392 1288.2642221657 1488.5054672974 543.58572155048 346.08931018234 663.43671800329 705.29509312006 696.50390270573 659.30494071578 741.90668979944 761.79700711995 1174.1993769974 1506.3113688655 781.84277094715 1408.3068960204 552.66404464528 1125.1491577086 692.36762261448 295.60071230494 330.02631476491 687.68845224105 601.83657361908 584.35941635184 513.30117062315 131.88975806073 1577.4668157311 1146.2370538658 1043.2185765501 1138.4213177325 686.44716197751 1093.9682937623 605.85811882658 926.09715472718 317.73444762343 287.26140573987 1076.5533350282 1689.2580573312 1976.8425069273 1768.3470714189 602.24664319151 722.9545483759 1125.9229056024 769.1216569996 912.14908096612 604.89755612968 426.24553104365 633.45083727442 1026.7355171102 637.48437311025 1735.4601161251 501.72568981957 536.80928230963 1053.5287301736 1228.7484162746 1062.3685999859 947.6186126298 665.48660896445 703.05223205968 860.71862143147 470.33854025396 675.66462242214 581.53769770485 561.85737395149 1269.2263414703 1111.7055592907 850.06121925044 570.95415312792 1212.9139381544 668.03493875405 843.69022562736 1065.07539988 913.81623278955 641.89813363484 795.46824813802 293.26354260964 655.76863930497 538.04389907072 1100.9919953394 690.99823177845 366.39926764192 423.62393914397 437.13562363952 361.4303155111 714.74653542366 681.13915259979 722.87819781576 665.26007007002 611.38378620621 168.48512107181 521.5181306104 413.52655640245 480.46100942234 626.90263106426 589.60510244877 438.39524708428 701.98530736399 37.817372177652 670.45796184933 689.91029809501 692.56525904293 665.76253683987 474.11180464433 431.48103812391 362.49650795768 625.40329467033 82.534074839956 66.46068836971 791.21392175424 463.23201762551 940.64388569691 665.7926275299 1006.6248820075 1108.4037955294 643.55187371259 705.3389559911 795.47165695376 580.42190231958 727.06266449955 235.24280027428 504.39638132632 423.28732798805 765.73916740003 351.453669132 905.98512862692 437.9482903193 470.51376436602 739.34725458418 461.49363743072 179.3132391636 146.62942804777 73.764987011147 705.47820351685 737.29244899664 734.11626246531 1003.8818965744 243.58808486289 1040.1293963521 730.51219099585 613.9438672267 552.60630550439 327.67219586908 329.90950054136 1048.643946482 447.83634670063 1329.124993388 75.059414757129 140.87800303622 525.21892135348 486.91346820308 465.01112724353 361.37667724404 553.62456597438 770.56855286217 738.13208726453 447.44879058997 556.66517622649 491.08893528816 465.8074898822 348.48334313679 556.69020379929 228.76765339293 201.41789784671 331.8273606816 328.35624520537 437.46703693806 483.87787508757 499.20992426026 709.67928295218 598.31439697628 609.41351627783 612.63842291824 820.69337374742 334.1605912308 814.34822862228 269.30704661858 649.74943537055 816.82516966328 911.04775447615 360.13946696476 477.58136703142 136.3362007718 85.78664152003 52.92784294089 22.412809858295 18.515593623042 212.8312363686 101.0910657431 502.57440724908 315.1677986456 452.89374839951 400.52494262301 283.53400470501 15.481063249546 658.38371483905 592.36150775174 987.31818696973 339.24331776311 238.68983638265 165.23207714056 100.70502319277 68.985378304421 1 78.385569602523 58.215587878202 42.619637747629 23.035928945898 84.100422879944 215.11738935895 298.95013113568 240.9493096031 306.15302665682 388.88057759224 368.17427211163 365.7683555597 319.22835693175 355.18309551555 152.32743322169 193.76626568532 258.53931199354 133.06316310568 39.471021011192 311.37825976551 63.353051871352 47.956915732316 248.15742386434 411.04061439457 142.71984349898 258.68896259927 100.51283673879 179.0094969288 216.66049619636 498.53289138158 1554.1251523611 731.5907743009 2.595997940793 20.548585255401 19.232355722255 0.096694534639988 3.347943650839 216.40842066617 30.119156816981 104.39056700711 0.10970655831753 135.5953323028 134.74789656113 82.866076701619 7.8629951342731 475.23853945504 286.74427717268 182.7363384089 29.004343819348 78.903035812664 406.91108500756 189.71468201659 71.4218204156 77.652235793707 80.283994550242 67.866866843643 691.06156408383 88.17272985024 730.42821045984 675.82575584407 478.39502612302 547.36008654756 584.54354247699 198.02030545956 206.63838223941 384.74909889794 145.08521597506 152.96323758117 261.01403788373 138.18961067862 4.4309761358518 253.93033856394 2.4451892349813 60.592795468399 116.46731708077 118.87710132779 181.7502150241 539.61796262472 126.80821634074 69.988346060123 10.247104004264 4.6142436166882 31.375890973882 1.6212253103866 77.532035443109 141.86056255643 403.99495188869 69.528853993502 119.33656313023 121.01088466235 233.23864198149 133.97266673003 0.14602473869056 0.36743207841379 20.325517375187 170.98272639302 8.6132732120604 21.489549524592 258.81491177818 363.76422438375 77.478045542212 35.416693350625 33.331920586815 18.216986720412 55.757065258236 77.256450145428 55.307756854974 291.00068403563 210.13160561399 59.780005836413 0.17399190658601 150.45587102344 2.0114682189417 0.94852761822426 10.785524545234 5.1579822109961 93.23490215096 13.200690527985 8.3242631992833 122.70398699264 219.03877241639 247.89250809336 0.014385627619623 0.20122924863087 1.2118350476453 34.110777874351 16.060422231966 3.8726983100847 24.106251056267 41.916380578846 0.10197551796432 10.127782420524 0.086697621632811 0.21504834223862 0.030343412239023 4.8465366898582 185.37747150781 582.46684700915 0.01434961384041 51.76040002085 1.9185295544846 0.2732508432783 0.028741911133471 0.044152876901194 0.28818274897383 1.8190626840565 0.02744967548807 0.036223193589264 205.33750738289 1 452.30703157769 919.67989126949 96.654077381218 1 1 56.69177224188 637.04794941092 805.94079723403 174.64809154038 1 1 191.53813185576 127.08408297876 409.27814656182 121.18417729074 186.32914796149 408.72205236296 155.95037957679 96.259887658356 60.065927274155 84.789110221263 131.39799163413 551.39561286556 226.53055901651 58.347615338326 65.055439589183 124.31407577862 140.2505886839 56.298104343471 56.617321164583 68.10140637911 58.464872371128 98.524712420037 180.74853254841 0.88830909593568 175.13050807076 0.68471881838502 0.14427633089748 5.5183614381662 1.9370337184009 1 235.12595585658 1 53.246931598947 1 1 1 1 44.07268685505 1.1797501942777 148.41119965086 199.1624168722 2.0548458336535 0.48980194925615 182.63304108708 59.565265253915 167.49260262498 45.563861771605 0.040094420682239 1 585.82395887875 1 1 6.9285761964214 154.66182284961 0.091602656165931 0.46915958205936 1 1 1 1 1 1 1 1 1 1 1 1 1 1 1 1 1 1 1 1 1 1 1 1 1 1 1 1 1 1 1 0.033044456912441 0.021936266245684 561.70751277157 726.57291097397 1 1 1 1 1 1 1 1 1 1 1 1 1 1 1 1 1 1 1 1 1 1 1 103.81320272403 0.25857991128045 1.0343476776186 1 164.15862600803 1 1 180.99131639257 1 1 1 1 0.083191562545647 15.44545378917 0.041946245693823 2.9742091642501 121.68319007916 55.95111011711 1 0.13420971013742 11.498241168411 65.023989939792 46.963275600848 127.59516316273 1 29.367249034768 439.69481903348 1 417.42000305424 12.938248430361 0.098258550915893 1 0.1583954067725 1.6309143768025 0.76421004555022 71.098330661277 5.947216692522 4.0255792342607 224.6973410055 47.01517934148 235.67478710003 224.57296839335 79.056882545813 80.17153733855 81.536725493828 28.852772153402 22.102202777664 2.4244840428311 99.61024044962 175.71811474148 1 303.51822601975 2.6848764009842 9.4889973512217 8.8348969480002 64.573777302409 47.517039662581 59.881151081151 51.609498418606 70.280836671527 58.70896838453 70.927499934564 102.39617569552 129.9895622546 1.6942711994936 22.073095358184 0.63743151600778 90.24945986504 30.273388664519 3.2133095346956 12.426762969669 97.371999823677 122.86281745068 1 143.6817458566 95.489832382999 1 53.440784095619 65.570437684496 60.939615881446 48.839659103692 50.714297527944 71.28529522498 126.78036614573 21.818922181863 127.26907102545 114.70056060118 163.11010594904 72.628991008471 12.659829972878 1 1 1 90.475874701451 1 137.79739659595 85.451152778714 187.61583495689 1 1 1 1 85.830134518104 168.59597162483 142.47714315163 133.39646359292 1 1 1 1 1 1 16.600325661536 96.576308339375 1 1 1 1 1 1 1 1 1 1 1 1 1 1 1 1 28.682664359485 417.0041482816 1 1 104.55565580249 201.74584289645 82.394565752103 1 1 1 1 1 1 1 1 1 41.957704950586 7.7985973709194 152.3837843879 141.96803048907 310.68807315594 88.014902021927 62.769004800964 1 252.14043492793 343.43897721499 413.32914785358 279.03478674401 1 1 1 1 44.824765235825 1 48.288720538599 48.057600628221 45.459782473355 46.678779508919 1 1 93.979624531873 289.77521993462 1 1 1 1 35.340809301285 129.28863563238 1 1 119.96440887268 175.83272495305 1 1 1 1 1 1 1 1 1 1 1 1 1 1 1 1 1 1 1 1 1 1 1 1 1 1 1 1 1 1 1 1 1 1 1 1 1 1 1 1 1 1 1 1 1 1 1 1 1 1 1 1 1 1 1 1 1 1 1 1 1 1 1 1 1 1 1 1 1 1 1 1 1 1 1 1 1 1 1 1 1 1 1 1 1 1 1 1 1 1 1 1 1 1 1 1 1 1 1 1 1 1 1 1 1 1 1 1 1 1 1 1 1 1 1 1 1 1 1 1 1 1 1 1 1 1 1 1 1 1 1 1 1 1 1 1 1 1 1 1 1 1 1 1 1 1 1 1 1 1 1 1 1 1 1 1 1 1 1 1 1 1 1 1 1 1 1 1 1 1 1 1 1 1 1 1 
POINT_DATA 618
