# vtk DataFile Version 3.0
d-2__ created by libgimli-v1.2.3-38-gcdaaaf1e
ASCII
DATASET UNSTRUCTURED_GRID
POINTS 618 double
-22	0	0
-22	-16	0
22	-16	0
22	0	0
-182	0	0
-182	-176	0
182	0	0
182	-176	0
-20	0	0
-19.5	0	0
-19	0	0
-18.5	0	0
-18	0	0
-17.5	0	0
-17	0	0
-16.5	0	0
-16	0	0
-15.5	0	0
-15	0	0
-14.5	0	0
-14	0	0
-13.5	0	0
-13	0	0
-12.5	0	0
-12	0	0
-11.5	0	0
-11	0	0
-10.5	0	0
-10	0	0
-9.5	0	0
-9	0	0
-8.5	0	0
-8	0	0
-7.5	0	0
-7	0	0
-6.5	0	0
-6	0	0
-5.5	0	0
-5	0	0
-4.5	0	0
-4	0	0
-3.5	0	0
-3	0	0
-2.5	0	0
-2	0	0
-1.5	0	0
-1	0	0
-0.5	0	0
0	0	0
0.5	0	0
1	0	0
1.5	0	0
2	0	0
2.5	0	0
3	0	0
3.5	0	0
4	0	0
4.5	0	0
5	0	0
5.5	0	0
6	0	0
6.5	0	0
7	0	0
7.5	0	0
8	0	0
8.5	0	0
9	0	0
9.5	0	0
10	0	0
10.5	0	0
11	0	0
11.5	0	0
12	0	0
12.5	0	0
13	0	0
13.5	0	0
14	0	0
14.5	0	0
15	0	0
15.5	0	0
16	0	0
16.5	0	0
17	0	0
17.5	0	0
18	0	0
18.5	0	0
19	0	0
19.5	0	0
20	0	0
-20	-8	0
20	-8	0
-20	-2	0
20	-2	0
-22	-8	0
22	-8	0
0	-2	0
-22	-4	0
10	-2	0
-10	-2	0
-15	-2	0
22	-4	0
0	-8	0
5	-2	0
15	-2	0
-5	-2	0
0	-16	0
10	-8	0
-10	-8	0
-12.5	-2	0
-17.5	-2	0
-2.5	-2	0
-19.75	-0.828260930412	0
9.75	-0.828260930412	0
-10.25	-0.828260930412	0
-16.163537500602	-1.208135964812	0
-14.75	-0.828260930412	0
-5.25	-0.828260930412	0
14.75	-0.828260930412	0
-7.5	-2	0
-3.75	-2	0
4.75	-0.828260930412	0
2.5	-2	0
7.5	-2	0
12.5	-2	0
17.5	-2	0
18.75	-2	0
-11.75	-0.828260930412	0
-13.25	-0.828260930412	0
-18.25	-0.828260930412	0
-19.25	-0.527319433269	0
9.25	-0.527319433269	0
10.75	-0.828260930412	0
10.25	-0.527319433269	0
-10.75	-0.527319433269	0
-9.25	-0.828260930412	0
-9.75	-0.527319433269	0
-15.75	-0.527319433269	0
-16.75	-0.527319433269	0
-14.25	-0.527319433269	0
-5.75	-0.527319433269	0
-4.75	-0.527319433269	0
14.25	-0.527319433269	0
15.75	-0.828260930412	0
15.25	-0.527319433269	0
-7.25	-0.828260930412	0
-3.75	-0.376400809185	0
-4.25	-0.437270007293	0
-3.167161277051	-0.602330869799	0
-0.75	-0.828260930412	0
4.25	-0.527319433269	0
5.75	-0.828260930412	0
5.25	-0.527319433269	0
0.75	-0.828260930412	0
3.25	-0.828260930412	0
7.75	-0.828260930412	0
12.75	-0.828260930412	0
17.25	-0.828260930412	0
19.75	-0.828260930412	0
19.25	-0.527319433269	0
18.25	-0.527319433269	0
-12.25	-0.527319433269	0
-17.75	-0.527319433269	0
-18.75	-2	0
-18.75	-0.441445692431	0
8.75	-0.441445692431	0
8.75	-2	0
11.75	-0.828260930412	0
11.25	-0.527319433269	0
10.25	-1.093153304529	0
-11.25	-0.441445692431	0
-11.25	-2	0
-8.25	-0.828260930412	0
-8.75	-0.527319433269	0
-9.75	-1.093153304529	0
-16.875	-2	0
-15.25	-0.441445692431	0
-17.25	-0.441445692431	0
-16.594466107239	-0.986341646218	0
-13.75	-2	0
-13.75	-0.441445692431	0
-6.25	-0.441445692431	0
-6.25	-2	0
-4.62147081223	-1.306698443684	0
13.75	-0.441445692431	0
13.75	-2	0
16.25	-0.527319433269	0
15.25	-1.093153304529	0
-7.75	-0.527319433269	0
-2.25	-0.828260930412	0
-0.25	-0.527319433269	0
-1.25	-0.527319433269	0
3.75	-0.441445692431	0
6.75	-0.828260930412	0
6.25	-0.527319433269	0
5.25	-1.093153304529	0
1.75	-0.828260930412	0
1.25	-0.527319433269	0
2.75	-0.527319433269	0
3.75	-2	0
7.25	-0.527319433269	0
12.25	-0.527319433269	0
8.492576101169	-0.881684323121	0
17.75	-0.441445692431	0
-6.507423898831	-0.881684323121	0
-12.75	-0.441445692431	0
-12.354699144428	-1.267105958819	0
-19.12236904112	-1.305206079058	0
8.25	-0.433093250112	0
8.873535410675	-1.220722846215	0
11.25	-2	0
9.745100144068	-1.441845649265	0
-11.111983414479	-1.136406181398	0
-8.75	-2	0
-10.254899855932	-1.441845649265	0
-15.428368035138	-0.90145979835	0
-15.043439106191	-1.288799784807	0
-17.071631964862	-0.90145979835	0
-17.588788135068	-1.332588036427	0
-14.12236904112	-1.305206079058	0
-6.75	-0.433093250112	0
-6.126464589325	-1.220722846215	0
13.25	-0.433093250112	0
13.873535410675	-1.220722846215	0
16.25	-2	0
16.75	-0.441445692431	0
14.745100144068	-1.441845649265	0
-7.75	-1.093153304529	0
-0.145300855572	-1.267105958819	0
0.25	-0.441445692431	0
-1.75	-0.441445692431	0
-1.25	-2	0
3.888016585521	-1.136406181398	0
6.25	-2	0
4.745100144068	-1.441845649265	0
1.25	-2	0
2.25	-0.441445692431	0
2.645300855572	-1.267105958819	0
7.25	-1.093153304529	0
12.25	-1.093153304529	0
18.663537500602	-1.208135964812	0
17.928368035138	-0.90145979835	0
17.543439106191	-1.288799784807	0
13.492576101169	-0.881684323121	0
15.788116738836	-1.504544477448	0
16.611983414479	-1.136406181398	0
-7.245100144068	-1.441845649265	0
-1.611983414479	-1.136406181398	0
7.754899855932	-1.441845649265	0
12.754899855932	-1.441845649265	0
18.75	-0.441445692431	0
18.11992909985	-1.476764894604	0
19.239231730732	-1.111044272325	0
11.25	-1.093153304529	0
-8.75	-1.093153304529	0
-6.875	-2	0
6.25	-1.093153304529	0
1.25	-1.093153304529	0
8.125	-2	0
13.125	-2	0
19.754886316899	-1.439757690204	0
10.75	-1.43259688182	0
11.75	-1.43259688182	0
-9.25	-1.43259688182	0
-8.25	-1.43259688182	0
5.75	-1.43259688182	0
6.75	-1.43259688182	0
0.689615256012	-1.546576652264	0
1.810384743988	-1.546576652264	0
-6.664049717583	-1.44122729143	0
8.335950282417	-1.44122729143	0
13.335950282417	-1.44122729143	0
-3.916358786876	-1.093892374022	0
9.375	-2	0
-10.625	-2	0
-18.125	-2	0
14.375	-2	0
4.375	-2	0
19.375	-2	0
20.264976687887	-1.129913783707	0
-7.1875	-3.035326163015	0
7.8125	-3.035326163015	0
12.8125	-3.035326163015	0
-10.9375	-3.035326163015	0
-18.4375	-1.440800225404	0
-18.4375	-3.035326163015	0
4.0625	-3.035326163015	0
19.0625	-3.035326163015	0
22	-2	0
21	0	0
20.269175954788	-0.533107450693	0
-6.5625	-2.659149291586	0
9.6875	-3.035326163015	0
8.4375	-2.659149291586	0
15	-8	0
13.4375	-2.659149291586	0
-10.3125	-2.659149291586	0
-17.8125	-2.659149291586	0
4.6875	-2.659149291586	0
19.6875	-2.659149291586	0
9.0625	-2.551807115538	0
14.0625	-2.551807115538	0
8.889979268099	-3.420507726748	0
14.6875	-2.54136656264	0
-13.030872885584	-1.513900684722	0
-6.251854788941	-3.882563890316	0
-5.625	-2.699962095368	0
-10.001854788941	-3.882563890316	0
-9.375	-2.699962095368	0
-16.303746374325	-3.723496017787	0
7.71317795334	-5.012784907073	0
5.625	-2.699962095368	0
19.998145211059	-3.882563890316	0
21.05072404377	-0.837024543176	0
-16.25	-2	0
20.935645211059	-2.847237727301	0
20.969632513441	-1.819901384898	0
-22	-2	0
-16.188445827129	-0.727003796404	0
-15.61992909985	-1.476764894604	0
-16.601729132422	-1.529980175715	0
-17.117868628949	-1.544345342433	0
-17.1875	-2.551807115538	0
-17.397066261244	-3.204810070038	0
-16.5625	-2.54136656264	0
-14.375	-3.172763702392	0
-15.625	-2.721654290334	0
9.926801314759	-4.549027471736	0
14.978508444103	-4.149980160211	0
-5	-8	0
-8.305512055302	-3.025899741806	0
6.694487944698	-3.025899741806	0
-15	-8	0
7.245337002394	-3.998062904153	0
14.384988394249	-3.144519387903	0
-4.414936427914	-3.151420491714	0
-18.198036927664	-4.843569349515	0
5	-8	0
4.998145211059	-3.882563890316	0
6.118974500435	-3.994141518717	0
5.373729075122	-5.79503092462	0
-0.625	-4.070652326031	0
-21	-0.753697369394	0
15.625	-2.721654290334	0
-3.125	-3.087135625199	0
-11.873145211059	-5.008861772761	0
-13.125	-3.086002958845	0
3.126854788941	-5.008861772761	0
0.625	-3.318298583172	0
13.927814661212	-3.640804366577	0
-7.75980229686	-4.607604785863	0
-1.875	-3.082541503111	0
-13.634951789131	-4.786933251338	0
1.875	-3.103614231077	0
-3.663478927254	-5.256085950369	0
1.507303240148	-4.70910495426	0
-2.495185441919	-4.394816289327	0
11.170446107452	-3.576653192122	0
-7.5	-8	0
2.5	-8	0
-2.5	-8	0
2.042434967725	-6.342853500708	0
-2.067497687546	-6.197982516924	0
-22	-12	0
-22	-6	0
22	-12	0
22	-6	0
-20.120869931017	-3.879130068983	0
86	0	0
-86	0	0
15.064626706653	-3.107953491203	0
15.886400466393	-3.700440913833	0
16.644980070625	-2.973551340205	0
13.609700719501	-5.635889483786	0
16.177126044172	-5.429153519213	0
17.246453247037	-4.360517194166	0
12.752254436748	-4.476266694129	0
18.671876410851	-4.406968285217	0
11.354486471835	-5.093520644045	0
17.5	-8	0
20.01704770104	-5.869702523668	0
10.087407847521	-6.271883415515	0
-12.5	-8	0
0.124713821887	-6.066484955109	0
3.75	-6.763110907419	0
-22	-10	0
22	-10	0
54	0	0
30	0	0
7.5	-8	0
12.5	-8	0
-12.936617469389	-6.347243495123	0
-19	-11	0
19	-11	0
-17.5	-8	0
-54	0	0
-9.298526566455	-6.027359454907	0
-14.735439687593	-6.215897725764	0
-11.25	-6.785730825861	0
38	0	0
-25.313043721649	-11	0
-38	0	0
25.313043721649	-7	0
26	0	0
-24.109277733075	-9	0
-30	0	0
24.109277733075	-5	0
24.109277733075	-9	0
24	0	0
-23.765782769722	-7	0
-26	0	0
23.765782769722	-3	0
23.765782769722	-11	0
-23.732373000448	-5	0
-23.73205083753	-3	0
-24	0	0
-25	-1.601282513101	0
-28	-2.361889805477	0
-26.035425954198	-3.813966878455	0
-6.118297343418	-6.090980850521	0
-19.945118903424	-5.927755737764	0
28.024204449011	-4.005935324611	0
24.298694077507	-14	0
27.250573973048	-10.569006915877	0
-28.024204449011	-8.005935324611	0
-25.687599346531	-5.96761722262	0
25.855392224123	-3.670612035982	0
-28.335728808185	-5.290391834756	0
27.241477789564	-1.887063884121	0
29.515244473262	-2.251125991398	0
31.676604483182	-5.598471053541	0
34	0	0
32	-1.608434686569	0
1.25	-12	0
-11	-16	0
11	-16	0
-16.25	-10.5	0
-32.678323783562	-7.164210490835	0
35.489165941867	-3.899358181333	0
1.25	-9.8046875	0
-1.25	-10.201045048701	0
5.5	-16	0
-5.5	-16	0
-11.25	-11.90625	0
16.407019769459	-10.290640307388	0
3.75	-10.201045048701	0
-16.5	-16	0
-13.75	-10.1875	0
-3.75	-10.165357613202	0
-6.25	-9.882004045926	0
-8.75	-10.186350036467	0
-11.25	-9.753125	0
13.75	-9.882004045926	0
11.25	-10.186350036467	0
16.5	-16	0
8.75	-9.882004045926	0
6.358008532069	-10.114612324011	0
-17.177083333333	-13.213541666667	0
-14.725991410819	-12.53581871345	0
-2.75	-16	0
-7.127436664288	-13.094537184684	0
12.881593316518	-13.168712474373	0
17.022120016502	-13.136060008251	0
17.903644773461	-6.087461023833	0
8.25	-16	0
-2.520432960716	-11.614584703695	0
-4.831970242096	-12.329547131669	0
-0.71529933453	-12.590725276936	0
0.795766619665	-14.053364568645	0
2.75	-16	0
3.269955748573	-13.523766594285	0
14.797003990268	-11.916719518607	0
13.75	-16	0
14.863509330769	-14.109644991242	0
7.695760437888	-11.456035985508	0
5.430342507616	-12.377496064531	0
9.960953287251	-12.187458905234	0
[...]
CELL_DATA 1119
SCALARS Marker double 1
LOOKUP_TABLE default
1 1 2 2 2 1 2 2 2 2 2 2 2 2 2 1 2 2 2 2 2 2 2 2 2 2 2 2 2 2 1 2 2 2 2 2 2 2 2 2 2 2 2 1 2 2 2 2 2 2 2 2 2 2 2 2 2 2 2 2 2 2 2 1 2 2 2 2 2 2 2 2 2 2 2 2 2 2 2 2 2 2 2 2 2 2 2 2 1 2 2 2 2 2 2 2 2 2 2 2 2 2 2 2 2 2 2 2 2 2 2 2 2 2 2 2 2 1 1 2 2 2 2 2 2 2 2 2 2 2 2 2 1 2 2 2 2 2 2 2 2 2 2 2 2 2 2 2 2 2 2 2 2 2 2 2 2 2 2 2 2 2 2 2 2 2 2 2 2 2 2 2 1 2 2 2 2 2 2 2 2 2 2 2 2 2 2 2 2 2 2 2 2 2 2 2 2 2 2 2 2 2 2 2 2 2 2 2 2 2 2 2 2 2 2 2 2 2 2 2 2 2 2 2 2 2 2 2 2 2 2 2 2 2 2 2 2 2 2 2 2 2 2 2 2 2 2 2 2 2 2 2 2 2 2 2 2 2 2 2 2 2 2 2 2 2 2 2 2 2 2 2 2 2 2 2 2 2 2 2 2 2 2 2 2 2 2 2 2 2 2 2 2 2 2 2 2 2 2 2 2 2 2 2 2 2 2 2 2 2 2 2 2 2 2 2 2 2 2 2 2 2 2 2 2 2 2 2 2 2 2 2 2 2 2 2 2 2 2 2 2 2 2 2 2 2 2 2 2 2 2 2 2 2 2 2 2 2 2 2 2 2 2 2 2 2 2 2 2 2 2 2 2 2 2 2 2 2 2 2 2 2 2 2 2 2 2 2 2 2 2 2 2 2 2 2 2 2 2 2 2 2 2 2 2 2 2 2 2 2 2 2 2 2 2 2 2 2 2 2 2 2 2 2 2 2 2 2 2 2 2 2 2 2 2 2 2 2 2 2 2 2 2 2 2 2 2 2 2 2 2 2 2 2 2 2 2 2 2 2 2 2 2 2 2 2 2 2 2 2 2 2 2 2 2 2 2 2 2 2 2 2 2 2 2 1 2 2 2 2 2 2 2 2 2 2 2 2 2 2 2 2 2 2 2 2 2 2 2 2 2 2 2 2 2 2 2 2 2 2 2 2 2 2 2 2 2 2 2 2 2 2 2 2 2 2 2 2 2 2 2 2 2 2 2 2 2 2 2 2 2 2 2 2 2 2 2 2 2 2 2 2 2 2 2 2 2 2 2 2 2 2 2 2 2 2 2 2 2 2 2 2 2 2 2 2 2 2 2 2 2 2 2 2 2 2 2 2 2 2 2 2 2 2 2 2 2 2 2 2 2 2 2 2 2 2 2 2 2 2 2 2 2 2 2 2 2 2 2 2 2 2 2 2 2 1 2 2 2 1 1 2 2 2 2 1 1 2 2 2 2 2 2 2 2 2 2 2 2 2 2 2 2 2 2 2 2 2 2 2 2 2 2 2 2 2 1 2 1 2 1 1 1 1 2 2 2 2 2 2 2 2 2 2 2 1 2 1 1 2 2 2 2 1 1 1 1 1 1 1 1 1 1 1 1 1 1 1 1 1 1 1 1 1 1 1 1 1 1 1 1 1 1 1 2 2 2 2 1 1 1 1 1 1 1 1 1 1 1 1 1 1 1 1 1 1 1 1 1 1 1 2 2 2 1 2 1 1 2 1 1 1 1 2 2 2 2 2 2 1 2 2 2 2 2 1 2 2 1 2 2 2 1 2 2 2 2 2 2 2 2 2 2 2 2 2 2 2 2 2 2 1 2 2 2 2 2 2 2 2 2 2 2 2 2 2 2 2 2 2 2 2 2 2 1 2 2 1 2 2 2 2 2 2 2 2 2 2 2 2 2 1 1 1 2 1 2 2 2 1 1 1 1 2 2 2 2 1 1 1 1 1 1 2 2 1 1 1 1 1 1 1 1 1 1 1 1 1 1 1 1 2 2 1 1 2 2 2 1 1 1 1 1 1 1 1 1 2 2 2 2 2 2 2 1 2 2 2 2 1 1 1 1 2 1 2 2 2 2 1 1 2 2 1 1 1 1 2 2 1 1 2 2 1 1 1 1 1 1 1 1 1 1 1 1 1 1 1 1 1 1 1 1 1 1 1 1 1 1 1 1 1 1 1 1 1 1 1 1 1 1 1 1 1 1 1 1 1 1 1 1 1 1 1 1 1 1 1 1 1 1 1 1 1 1 1 1 1 1 1 1 1 1 1 1 1 1 1 1 1 1 1 1 1 1 1 1 1 1 1 1 1 1 1 1 1 1 1 1 1 1 1 1 1 1 1 1 1 1 1 1 1 1 1 1 1 1 1 1 1 1 1 1 1 1 1 1 1 1 1 1 1 1 1 1 1 1 1 1 1 1 1 1 1 1 1 1 1 1 1 1 1 1 1 1 1 1 1 1 1 1 1 1 1 1 1 1 1 1 1 1 1 1 1 1 1 1 1 1 
SCALARS res double 1
LOOKUP_TABLE default
1 1 457.31442954494 1051.54692674 377.68689374017 1 665.88500929065 260.65214977801 0.23267812972779 33.503923153395 139.62774044427 48.514728420158 672.36029343219 265.93222336247 597.36504881993 1 231.54596027891 27.505411072711 439.08298946947 735.70956890114 468.90062976624 699.74393399323 119.11426348167 991.52937070825 2215.5942066807 738.88696710696 878.75221111294 169.03338099811 452.56186186286 307.32279215909 1 717.08576806088 860.72977644502 69.244524142821 0.61296701041111 1260.1302548735 1104.7459590957 208.76508606243 918.21465397526 0.68006467279181 1719.2912475539 896.98538272659 44.630198204175 1 295.57410712137 1067.6625635333 279.65531560817 1163.5812472438 295.84718608083 748.28715099424 1126.2271206864 659.45724430755 1.0668261579947 1970.0952230687 1235.885453274 2.7154664484066 52.633181527244 1204.8324409687 772.93428363894 98.163081810475 1264.5818411797 336.46181006597 1998.5919275769 1 260.51188862297 731.92574866358 932.03140105257 439.38759206048 681.04009806762 743.29128219276 781.07053707845 659.3331911606 1115.3822203958 381.5264006265 308.3115885663 701.06047947316 647.94972933261 1098.4272463092 1400.6862566699 117.74265291179 647.52923163632 926.71075795908 675.61194605552 928.41984473209 685.4438593669 228.13684163495 908.64493376009 1478.2794926034 1 884.5033481279 779.93937829596 49.177461631928 1453.9135817869 794.24341873207 735.10017588892 924.38612545187 131.70291849257 692.55905880675 675.00414605495 714.7050597185 697.68952758057 826.46482034197 260.96684861119 682.18820869738 943.24024604762 689.89351582684 108.91219035346 1224.506275681 733.46591966891 598.05357810224 926.58237705939 951.26459008519 991.95129032199 1051.5762824148 42.266456459687 52.817980170107 751.43185062338 1 1 974.23183657714 906.54108825168 1191.6366634262 1339.5630905618 695.83432935776 1361.542573974 1432.9565267146 1245.3614878365 999.40990357497 1079.8270169861 617.48906069554 598.37074864643 1039.9686315109 1 535.47526128952 774.15281492025 982.01355895022 1048.9724863566 270.51464065219 1200.0965902304 982.97319457961 957.82321477023 705.01530851633 987.79939072336 607.91522572139 901.67956730937 971.00461131702 808.7692935645 1005.4858159829 548.05170266769 671.04647625342 690.09054172334 306.69093126003 800.72451721434 350.61254902417 1089.5997346762 1612.2272155824 978.55280879007 685.57268501146 587.14526705347 886.08155610243 1055.2048097303 511.03589129131 814.89898147571 896.69959555499 589.82139886846 464.05767753814 803.82159002183 600.38152207057 658.07273952296 1472.2812561554 1244.9355856301 50.037451351298 1 1050.9214251905 802.95685490386 520.82656650564 636.94897477932 995.66188744048 685.42977307893 388.84142656681 1187.4555963824 536.21497594108 181.87730987136 597.85945736947 548.8074878484 404.57689929846 611.17951048396 988.85798199217 942.51732186633 1124.2183398847 1029.8670816011 640.88122392844 746.01205618313 713.89788851121 817.53843289408 546.63712700057 652.1639260094 784.27419706276 646.05101029665 1036.7725092552 624.42607976301 707.21081042939 697.26729445223 707.45871325281 632.47606852091 317.54123777912 657.80786195245 713.54443743507 647.98419349766 845.61590779245 844.27618016119 359.41705202189 1369.7348763959 867.78815490534 1357.4741874672 663.82140528148 733.47498317155 509.80936004879 1029.2208777125 1651.1802159767 721.22787405915 914.75703975097 880.91577036142 521.67544400012 514.46016033765 735.40279340849 421.20711662242 357.29494822235 380.09890357371 565.21579706883 273.07337237599 1038.5247862197 1859.177938811 568.76700650341 502.60245149457 518.41856870831 580.1055740282 386.4218026974 464.02230174911 1156.6224878597 1021.3392764864 886.75508973255 339.29383407773 889.12566332358 880.30359388928 626.27402946656 981.33100577265 826.1231353391 892.83924066873 1015.524700524 1517.9462781517 1963.5048876453 116.41187570413 1161.8602492322 1009.3942570288 963.45677413036 1246.1784922479 999.30066816976 1318.9057705722 297.18124156999 883.0900619245 730.20694380099 606.37242017416 486.17681690492 648.6498555692 415.05510564205 337.41220655959 1025.2372371239 860.38092031774 953.46480460438 942.96898317136 722.80348123771 1464.9768830002 1374.6153015265 150.86756638809 415.42911797809 732.22856618746 665.44641994459 1096.9462361541 941.00723152035 464.91486436172 723.43702571869 462.26086493893 932.00431399155 573.47953476046 1226.8592861052 1332.5726791641 470.90219471646 323.58519373875 615.4673848402 699.49280740241 617.14744203909 621.44826976291 853.59420725061 808.37791543307 1092.8021579784 1643.3326639385 737.89025433589 1442.4269082126 592.21702831086 1114.4316354842 712.40158764596 305.50270309207 406.51427935458 726.21868852999 683.13249657604 670.01887257764 531.85108408092 142.06290961261 1705.1952368826 1143.6083728369 1035.7587478224 1054.3756967351 699.43204172562 1047.1797056379 567.02879666406 814.56766777476 233.77417662282 255.14748411128 1180.0630702182 1516.0609262688 1906.5698621425 1624.7208151041 422.90948409505 579.27098809861 1173.4674981505 810.48878734345 916.78531475898 716.1646154609 487.42796287481 583.17203175549 908.94528334153 700.14590853305 1762.2506656416 628.38826201626 586.15865488109 959.82588867209 1427.9564147927 1100.8842829032 772.71568339983 659.18585283882 580.1618563167 856.85830824001 561.80019434553 728.59973468505 650.29395733134 530.65264461697 1043.9148968919 1209.0607574664 844.41789703943 867.76828630356 1253.8843737694 621.08898554199 813.73388935535 977.81293619903 827.30184002014 753.61873241122 837.97842500958 290.44961149969 600.5414377479 533.01772904453 961.54459852371 700.93692963538 354.30451361299 467.01982004735 418.80976890553 388.91162570297 663.31953254216 684.49123809467 621.00245662465 598.82890511832 595.55733862393 139.53996588357 545.85626197116 456.13267640083 479.96611628259 616.39969226915 631.88214820351 449.29880078857 731.33104154131 38.631096670415 733.228539082 719.33779010063 714.39449675565 689.61827740323 441.82394126098 445.76485625628 397.2619869401 608.5025849345 36.788066433178 41.679404633318 735.16255526218 698.64823084509 680.66377955981 789.97238588384 912.63493688822 954.33882154794 751.61052736708 584.84902203995 696.14481798906 443.90154854384 900.19393465222 201.7094264068 453.03762566203 409.89792661688 782.26505341392 352.33842363615 854.21448695989 467.87222636267 597.56825423702 772.15222148096 540.18065696627 321.19886476658 202.15294444956 91.824118181823 670.39402562559 673.49600346816 820.60640549526 928.35416627511 327.17999948979 1329.077658807 701.08601623164 597.25736340004 633.92423097246 414.66805182973 367.31208920182 954.60831284954 483.2657517364 1083.6502576739 49.13036716549 83.186830064822 565.27582535493 483.97445748012 448.79147931563 370.89364066859 656.54320903346 750.41249966113 658.5676741675 409.47409716868 540.06533763258 503.60692899879 442.389749154 335.8907087428 611.60647425488 269.85543658843 251.37427953063 379.0021332226 559.07982147187 639.2732615814 543.17887758537 560.91184719893 723.56617796143 639.86096389361 556.01844586403 612.77273744221 837.49755778448 365.26067923182 979.11653221974 265.76525053637 690.4219302558 510.21873775192 918.46189628597 407.91562482982 520.30935722333 145.68871564367 65.327809140928 82.489658590648 21.066681795556 21.993040781708 178.22553449815 112.7767290095 451.66937310967 321.43823892487 374.023518311 443.76229250666 273.02829638204 16.26891418562 612.64339239859 482.06954281468 606.69645753254 230.25436080929 242.251452501 170.36901026728 154.39319811228 43.238173976127 1 41.484932011642 33.403400371707 27.024106067901 22.838607003014 67.719196677888 201.33483682203 327.90840589473 265.82684062936 293.6038443381 462.44713545762 387.72513264272 362.93954096047 352.44907727845 380.44656799958 168.92735111022 189.425090423 308.5123120055 117.11131899008 52.867085304541 298.04904729314 74.566239488549 34.924459998549 258.7724049708 476.95070642217 160.03900920072 263.45283722862 110.51599626585 182.0047634453 202.54736356728 449.43626615476 1445.1189479882 894.58454475691 2.5603203593157 18.000322621648 18.651945592435 0.10861817767285 3.4245854378439 178.76583295202 30.511597698592 87.749807570213 0.11560323289883 132.01341496293 122.68613422187 88.169026279723 10.101249170586 416.22422792175 290.23112075697 224.78162176266 29.497112303431 37.700013531502 445.36608901316 191.40032957437 56.511723585823 50.454473055829 42.671700701668 42.062604996462 579.09165976532 99.766201228845 969.57333008976 757.62222292875 422.14568715918 516.8289578984 599.31584788652 187.39529047132 200.73065708711 392.38946678857 126.47258155946 157.69779122903 200.7761162808 180.32740921454 4.2182242416275 290.91362856872 2.8648700852644 59.485264255569 141.72546870453 106.74610718932 184.65625187351 581.45252928693 147.60817940903 108.91934728263 9.0040925787183 3.8973721188171 29.578255023028 1.5681098194874 87.846884221967 147.00162520559 318.38355682286 82.20347843259 134.58533079381 136.17696289653 215.25805500781 149.84863114231 0.16306382133427 0.3745196396219 21.04466011218 180.24252215035 12.015976135171 31.150729186069 237.8057302991 330.71048841894 90.516820346296 49.401673350382 41.644334552997 27.033001588596 55.82182373247 59.332114355563 61.279946929185 257.05958319388 204.42110746886 62.170947570598 0.15355277729718 127.35320732239 2.4146747848252 0.68048714852784 12.800554999725 5.4604629568242 96.935663880038 17.261005460239 10.218221196788 134.81925284651 218.48688288837 245.17161411059 0.01518440195631 0.26109435343975 1.0857320190497 31.250972729568 21.467469020217 2.9510054561149 28.566376351553 47.317207013504 0.10348729758623 8.0214666459639 0.085468583624237 0.18082749093096 0.031723639633931 4.4292818920462 206.41257974349 618.28086354485 0.016313140134311 47.109730963965 2.407284041412 0.23054053059946 0.029783554923247 0.04145439667024 0.35024983213429 1.8899601966904 0.027022246975143 0.037839925078777 184.49231362567 1 381.32395359623 648.83526003991 108.07464520795 1 1 47.995005435243 515.51802860334 534.12114226964 178.80435216957 1 1 180.1694043297 136.39360758351 362.23600343179 159.13353201795 228.99349836069 440.73096935448 168.69036221322 112.00376100687 78.362640284726 112.13757849621 183.1248453023 600.6222393715 247.88116025181 59.233475394177 47.867776840539 125.96176686645 135.11562296232 55.160930301822 65.829608291926 94.212392130663 50.698475336023 102.20476185329 152.5518196828 0.9917926585333 148.76799056906 0.89833192747465 0.16076791053684 7.470458639015 1.9912626750279 1 206.18214865992 1 47.696648964408 1 1 1 1 59.210400616468 1.1228240776083 155.72205565702 168.74629070993 2.2686717202897 0.34314530836417 165.94413752095 47.776908406542 178.66407965997 40.610636093077 0.038458047144864 1 495.78261852703 1 1 9.2632089415463 159.95178968388 0.080203947114638 0.42523481119237 1 1 1 1 1 1 1 1 1 1 1 1 1 1 1 1 1 1 1 1 1 1 1 1 1 1 1 1 1 1 1 0.038962858949995 0.024157714127109 451.4832612828 576.13986975124 1 1 1 1 1 1 1 1 1 1 1 1 1 1 1 1 1 1 1 1 1 1 1 97.679992561369 0.2281769414814 0.73528679942537 1 147.63408065587 1 1 155.19195910518 1 1 1 1 0.077527197897329 13.790401047896 0.040521322893691 2.3333978415685 111.19380568475 54.032687801315 1 0.12382910049426 8.8046766644088 61.283214977554 42.069392626113 139.28664634799 1 28.836081695776 383.16486165165 1 367.52751663764 9.8408134347981 0.089729619623391 1 0.13259722322958 1.3983011638264 0.59254542274304 64.873140582891 4.3505286288465 3.0915478319622 203.27840795364 43.989333074387 200.67607988916 209.50386607535 82.065930504851 86.439136097565 89.2184018528 31.861207586698 30.263160295691 2.4694002908815 92.318150060874 155.68280262963 1 272.19661746704 2.2641388816655 7.4937302415851 6.8075032163411 52.812462064104 40.892252307639 52.947290352875 46.961415902137 71.08674476663 63.294465500825 83.726499764607 104.8735789244 133.38657835039 1.3347518551008 19.091056086879 0.53817714141686 88.287721596933 26.449724214884 2.7683935643908 13.399389791051 97.336951928382 122.85270206099 1 141.98400739395 95.017681714879 1 48.404398428396 60.564027986769 55.730610688933 40.967729991685 43.662754116188 72.120513882911 110.88061905973 26.154860811246 121.16350100982 108.90911934535 165.44738945367 69.805150791289 9.9446237262151 1 1 1 88.103585718485 1 128.77289047084 86.195735576358 162.08464947905 1 1 1 1 87.229545772133 162.23774667381 129.3298060788 129.08735240598 1 1 1 1 1 1 14.305737328901 92.93786093785 1 1 1 1 1 1 1 1 1 1 1 1 1 1 1 1 35.034498793994 343.22360760933 1 1 96.951441662698 181.15822544618 76.220081257911 1 1 1 1 1 1 1 1 1 32.291434736626 6.3899233503265 131.32608149305 130.10851193179 285.76219359361 71.197132365239 55.851567174133 1 234.81874383488 308.15569397175 370.06905138101 258.34416495908 1 1 1 1 41.156198280923 1 43.664881826638 43.987194247016 42.274607418127 42.676757112472 1 1 87.273566434681 259.11726776545 1 1 1 1 29.333832681797 113.85463107921 1 1 109.67793045764 160.13751401744 1 1 1 1 1 1 1 1 1 1 1 1 1 1 1 1 1 1 1 1 1 1 1 1 1 1 1 1 1 1 1 1 1 1 1 1 1 1 1 1 1 1 1 1 1 1 1 1 1 1 1 1 1 1 1 1 1 1 1 1 1 1 1 1 1 1 1 1 1 1 1 1 1 1 1 1 1 1 1 1 1 1 1 1 1 1 1 1 1 1 1 1 1 1 1 1 1 1 1 1 1 1 1 1 1 1 1 1 1 1 1 1 1 1 1 1 1 1 1 1 1 1 1 1 1 1 1 1 1 1 1 1 1 1 1 1 1 1 1 1 1 1 1 1 1 1 1 1 1 1 1 1 1 1 1 1 1 1 1 1 1 1 1 1 1 1 1 1 1 1 1 1 1 1 1 1 
POINT_DATA 618
